! Touchstone file exported from HFSS 2021.2.0
!        File:           C:/Users/pmena/AData/NRAO/Modelling/HFSS/Artificial/Artificial.aedt
!        Generated:      9:51:31 AM  Mar 03, 2023
!        Design:         03_Artificial_UnitCell
!        Project:        Artificial
!        Setup:          Setup2
!        Solution:       Sweep
!
! Variables:
!        $Tc = 14.7
!        $l0NTN = 314.642654451045nm
!        $l0nm = 314.642654451045
!        $rn = 132
!        L1 = 440um
!        L2 = 884um
!        L3 = 804um
!        L4 = 372um
!        N1 = 110
!        N2 = 221
!        N3 = 201
!        N4 = 93
!        Wl = 35um
!        Wu = 19um
!        Zp = 50ohm
!        g = 1um
!        ha = 140um
!        hd = 140um
!        hp = 70um
!        lH = 1um
!        lL = 1um
!        la = 3140um
!        ld = 3140um
!        lext = 0
!        ll1 = 160um
!        ll2 = 160um
!        ll3 = 320um
!        ls = 3140um
!        lu = 4um
!        nn1 = 40
!        nn2 = 40
!        nn3 = 80
!        nu = 30
!        ts = 60nm
!        wH = 1um
!        wa = 280um
!        wd = 280um
!        wp = 140um
!
# GHz S MA R 50.000000
! Terminal data exported
! Port[1] = 1
! Port[2] = 2
0.1                            0.0265217614584573 75.2252223926663 0.999648113160223 -5.55331492796015 0.999648113160223 -5.55331492796015 0.0265217382390471 93.6678414654431 
0.2                            0.0522471332627081 74.5920364515505 0.998633694862871 -11.0977427757851 0.998633694862873 -11.0977427757851 0.0522470888842541 83.2118553822253 
0.3                            0.077531475615752 70.8647932040704 0.996988804817953 -16.6277248263789 0.996988804817953 -16.6277248263789 0.0775314151399676 75.8788255907699 
0.4                            0.102030036942692 66.3740328477734 0.994779374117555 -22.1364457078271 0.994779374117554 -22.1364457078271 0.102029967608506 69.3518430827405 
0.5                            0.125485367016264 61.5984677857255 0.992092454100363 -27.6181614623554 0.992092454100362 -27.6181614623554 0.125485298036834 63.1636854597655 
0.6                            0.147675142202079 56.701865712148  0.989031613164199 -33.0682660323267 0.989031613164201 -33.0682660323266 0.14767508443457 57.1597996111242 
0.7                            0.168406820223684 51.7567257585573 0.98571176946568 -38.4834120942503 0.985711769465681 -38.4834120942503 0.168406785767027 51.2743837454724 
0.8                            0.187516991211464 46.8004546986397 0.982253850142811 -43.8615905743838 0.98225385014281 -43.8615905743838 0.187516992940192 45.4740521414037 
0.9                            0.204869255565666 41.8542162264223 0.97877994642062 -49.2021422351975 0.97877994642062 -49.2021422351976 0.204869306610828 39.7389627219614 
1                              0.220354909663656 36.930424329949  0.975408284410323 -54.5057426019505 0.975408284410323 -54.5057426019505 0.220355022816811 34.0553538911056 
1.1                            0.233888681212374 32.0365279618642 0.972249649078056 -59.7742995594789 0.972249649078057 -59.774299559479 0.233888868315772 28.4119647203395 
1.2                            0.245406189978083 27.1766537337736 0.969404180742969 -65.0108407079573 0.969404180742969 -65.0108407079573 0.24540646118937 22.7986176313997 
1.3                            0.254861604507479 22.3528835177108 0.966958775611564 -70.2193698225361 0.966958775611565 -70.2193698225361 0.254861967507131 17.2052279786261 
1.4                            0.262223672276201 17.5658882444691 0.964985583066393 -75.4047026965129 0.964985583066394 -75.4047026965129 0.262224131240592 11.6214986920617 
1.5                            0.267475934161178 12.8158212290204 0.963540051189809 -80.5723004439577 0.963540051189809 -80.5723004439577 0.267476488798053 6.03636054494594 
1.6                            0.270610564289356 8.10262520338173 0.962661280709903 -85.7280760880217 0.962661280709904 -85.7280760880217 0.270611208478047 0.438052126154869 
1.7                            0.271630922212493 3.4265926872129  0.962370556180073 -90.8782259586593 0.962370556180073 -90.8782259586593 0.271631642410001 -5.18610298852468 
1.8                            0.270547852665691 -1.21103151195946 0.962672070961045 -96.029042712516 0.962672070961045 -96.029042712516 0.270548625960287 -10.8499244118912 
1.9                            0.267381577098584 -5.80747771187076 0.963552549216774 -101.186735611705 0.963552549216774 -101.186735611705 0.267382368784708 -16.5685875301915 
2                              0.262160945850857 -10.3576399694928 0.964982046829682 -106.357259910568 0.964982046829682 -106.357259910568 0.262161706231857 -22.3590929440337 
2.1                            0.254926384458517 -14.8531621365368 0.966914180743246 -111.546137925539 0.966914180743246 -111.546137925539 0.254927044783896 -28.240821492264 
2.2                            0.245730837177523 -19.2810735569403 0.96928741735575 -116.758297707986 0.969287417355751 -116.758297707986 0.245731304133785 -34.236574448493 
2.3                            0.234642708986928 -23.621980320517 0.972026352856715 -121.99791734681 0.972026352856714 -121.99791734681 0.234642857225969 -40.3740687323531 
2.4                            0.221750261030451 -27.8473781444656 0.975043265469511 -127.268272998482 0.975043265469511 -127.268272998482 0.221749922620182 -46.6883169278922 
2.5                            0.207164651414754 -31.915451066424 0.978240712148398 -132.571623759892 0.978240712148397 -132.571623759892 0.207163600549826 -53.2255936441213 
2.6                            0.191025806333077 -35.7644590222917 0.981514230342468 -137.909105173069 0.981514230342467 -137.909105173069 0.191023736353979 -60.049827801522 
2.7                            0.173509070928165 -39.3015339982604 0.984755829676002 -143.280666966599 0.984755829676002 -143.280666966599 0.173505558479518 -67.253671187369 
2.8                            0.154835383542491 -42.3828701701126 0.987857941535137 -148.685048752581 0.987857941535136 -148.685048752581 0.154829830304051 -74.9782440189432 
2.9                            0.135288998647351 -44.7771674518673 0.99071770554437 -154.119801774587 0.990717705544369 -154.119801774587 0.135280532942749 -83.4497153219633 
3                              0.11525190506055 -46.0939944697147 0.993241472805277 -159.58136715779 0.993241472805276 -159.58136715779 0.115239210024229 -93.0510886577027 
3.1                            0.0952802368011936 -45.6386355634268 0.995349118357876 -165.065208645958 0.995349118357877 -165.065208645958 0.095261250262717 -104.467713168261 
3.2                            0.076285002034792 -42.1249996265402 0.996977959593956 -170.565992761686 0.996977959593957 -170.565992761686 0.0762564585059656 -118.975358213115 
3.3                            0.0599588661660978 -33.2719620960822 0.998085878172026 -176.077820560175 0.998085878172027 -176.077820560175 0.059916144503764 -138.847186463111 
3.4                            0.0494742596893986 -16.5155407381671 0.998653422413808 178.405511066923 0.998653422413808 178.405511066923 0.0494145624298286 -166.648511603155 
3.5                            0.0486947780991967 5.35128092228149 0.998684616331756 172.89023256535  0.998684616331757 172.89023256535  0.0486261052638554 160.418910202016 
3.6                            0.0575473317735546 22.6567017071184 0.998206491305164 167.38231791338  0.998206491305163 167.38231791338  0.0574826244509071 132.071186921529 
3.7                            0.0719141402676672 32.012755927678  0.997267272144756 161.887222537767 0.997267272144756 161.887222537767 0.0718573419686727 111.717795765116 
3.8                            0.0884079217181837 35.8738073487311 0.995933479058776 156.409650446667 0.995933479058776 156.409650446667 0.0883579394147614 96.902533199326  
3.9                            0.105263386545875 36.5892561008464 0.994286137634417 150.953367803348 0.994286137634418 150.953367803348 0.105218553618148 85.2774838969897 
4                              0.121576301011722 35.4966578029326 0.992416443256405 145.52106787461  0.992416443256404 145.52106787461  0.121535339493049 75.5086584333154 
4.1                            0.136831774093675 33.3173661216023 0.990421205586418 140.114294033252 0.990421205586418 140.114294033252 0.136793797411432 66.8773508060688 
4.2                            0.150704010584703 30.455389178255  0.988398339902122 134.733417394394 0.988398339902122 134.733417394394 0.150668405225102 58.9802436570659 
4.3                            0.162971250146934 27.149749090065  0.986442671397825 129.377664964455 0.986442671397825 129.377664964455 0.162937580121504 51.5768171985913 
4.4                            0.173476490455413 23.5495927996112 0.984642231588471 124.045195819474 0.984642231588471 124.045195819474 0.173444432827674 44.5143096738708 
4.5                            0.182107616643401 19.7527807726001 0.983075099601193 118.733212156931 0.983075099601192 118.733212156931 0.182076918781691 37.6893293286746 
4.6                            0.188786083743198 15.8268297905023 0.981806886477489 113.438100107498 0.981806886477489 113.438100107498 0.188756534027152 31.0271892938017 
4.7                            0.19346013629956 11.8209778699575 0.980888805243093 108.15559351417  0.980888805243093 108.15559351417  0.193431542620578 24.4701713271221 
4.8                            0.196100712269668 7.77368612289935 0.980356283287348 102.880950742875 0.980356283287347 102.880950742875 0.196072884814147 17.9703799960105 
4.9                            0.19669892592958 3.7177058701042  0.980228129050277 97.6091432217536 0.980228129050277 97.6091432217536 0.19667166169797 11.48505533772   
5                              0.195264946144696 -0.316036073327766 0.980506182499473 92.3350470797306 0.980506182499451 92.3350470797306 0.195238013436885 4.9730736451332  
5.1                            0.191828312457223 -4.29500274022968 0.981175388678501 87.05364356209   0.981175388678501 87.05364356209   0.191801433368858 -1.60808336027692 
5.2                            0.186439420600894 -8.18147509418349 0.982204346381293 81.7601964610589 0.982204346381293 81.7601964610589 0.186412249854699 -8.30554223101806 
5.3                            0.179172307002967 -11.9282076555757 0.983546347574293 76.4504500939559 0.983546347574294 76.4504500939559 0.179144404252889 -15.1749823782687 
5.4                            0.170129131525854 -15.4725654505202 0.98514091740899 71.1207953724545 0.98514091740899 71.1207953724545 0.170099923798094 -22.286162784309 
5.5                            0.15944703474663 -18.7278624480943 0.986915882222439 65.7684255303095 0.98691588222244 65.7684255303095 0.159415763321078 -29.7312684930796 
5.6                            0.147308365941002 -21.5699616845721 0.988790037877962 60.3914679635312 0.988790037877963 60.3914679635312 0.147274009836379 -37.6380471238613 
5.7                            0.133957029673978 -23.8156929442096 0.990676375695385 54.9890822627595 0.990676375695385 54.9890822627595 0.133918194060233 -46.1912098041919 
5.8                            0.119726083360498 -25.1876384507821 0.992485822217052 49.5615203243266 0.992485822217052 49.5615203243266 0.119680840135467 -55.6675851589368 
5.9                            0.105086781558227 -25.258333000814 0.994131386013261 44.1101388663714 0.994131386013261 44.1101388663714 0.105032463459402 -66.4920874427313 
6                              0.0907374859099485 -23.3742288444331 0.99553253080934 38.6373572026227 0.995532530809341 38.6373572026227 0.0906705179856967 -79.3143935245363 
6.1                            0.0777542012413551 -18.6143788521706 0.996619521852477 33.1465609862971 0.996619521852476 33.1465609862971 0.0776703703692771 -95.0517998229801 
6.2                            0.0677659072598881 -10.0483653854773 0.997337452988751 27.6419475181329 0.997337452988752 27.6419475181329 0.067662242316724 -114.633369106919 
6.3                            0.0628308474492762 2.14695954020221 0.997649639754413 22.1283208760097 0.997649639754412 22.1283208760097 0.0627101542988671 -137.879957535174 
6.4                            0.0643817124144961 15.3107605368851 0.997540078203035 16.6108437425851 0.997540078203034 16.6108437425851 0.0642547441435625 -162.112955107112 
6.5                            0.0719163339590268 25.8503722564709 0.997014750465998 11.0947610859041 0.997014750465998 11.0947610859041 0.0717942970560011 176.289993827957 
6.6                            0.0834960936494343 32.3358162257878 0.996101621456042 5.58511029871507 0.996101621456043 5.58511029871506 0.0833839383101736 158.774738616791 
6.7                            0.0971855886959387 35.3152247188239 0.994849321024988 0.086436643333149 0.994849321024988 0.0864366433331494 0.097083613606435 144.796814984189 
6.8                            0.111611232845499 35.7820092870565 0.993324607434941 -5.39746906471307 0.993324607434941 -5.39746906471307 0.111518202179943 133.365240349833 
6.9                            0.12587227395502 34.5268864862803 0.991608802348534 -10.8637979359   0.991608802348533 -10.8637979359   0.125786871320572 123.692301870264 
7                              0.139362646588366 32.0766859879598 0.989793483565492 -16.3108993151548 0.989793483565492 -16.3108993151548 0.139283886670863 115.253387387938 
7.1                            0.151652225908482 28.7661639177506 0.987975707473825 -21.7384052692422 0.987975707473824 -21.7384052692422 0.151579506329229 107.71408277168  
7.2                            0.162420675558407 24.8052398569639 0.986253058310744 -27.1472952036812 0.986253058310744 -27.1472952036811 0.162353741356476 100.862403756723 
7.3                            0.171421602174956 20.3231865297809 0.984718751640732 -32.5399041060225 0.984718751640732 -32.5399041060225 0.171360506304644 94.5644205148032 
7.4                            0.178462938161621 15.3950661539779 0.983456952858972 -37.9198753320347 0.983456952858972 -37.9198753320347 0.178408019683017 88.7378472041833 
7.5                            0.183396302185788 10.0568342002241 0.98253842542227 -43.2920650312531 0.982538425422269 -43.2920650312531 0.183348186892635 83.3371024663803 
7.6                            0.186112199434887 4.31318043196077 0.982016536048573 -48.6624000004589 0.982016536048573 -48.6624000004589 0.18607182455577 78.3457428489007 
7.7                            0.186539962630922 -1.85959603130195 0.981923626618772 -54.0376942792798 0.981923626618771 -54.0376942792798 0.18650862864972 73.7739508292723 
7.8                            0.184652712722552 -8.5148732459751 0.982267755472041 -59.4254248181532 0.982267755472041 -59.4254248181532 0.184632167940744 69.6602663520629 
7.9                            0.180479073158878 -15.7410393373761 0.983029788468037 -64.8334699715257 0.983029788468035 -64.8334699715257 0.180471639801372 66.0774323318012 
8                              0.174124593864732 -23.6716790295619 0.984160936873216 -70.2698072267437 0.984160936873216 -70.2698072267437 0.17413334613159 63.1431564571296 
8.1                            0.165808447567526 -32.5015994459347 0.985580873790329 -75.7421712675424 0.98558087379033 -75.7421712675424 0.165837446156362 61.0367460437147 
8.2                            0.155924541652386 -42.5083805277868 0.987176656403944 -81.2576734640148 0.987176656403944 -81.2576734640148 0.155979097287545 60.0212416901161 
8.3                            0.145139757701285 -54.0726289751246 0.988802829811604 -86.8223860346697 0.988802829811604 -86.8223860346697 0.145226585874924 60.4641161377377 
8.4                            0.134539002877526 -67.6675095186773 0.990283143751723 -92.440901022206 0.990283143751723 -92.440901022206 0.134665832525438 62.8269866668993 
8.5                            0.125788234301085 -83.7347569026886 0.991414381897361 -98.1158808697238 0.991414381897362 -98.1158808697238 0.125961874846528 67.5418297015297 
8.6                            0.121153757426737 -102.316835726207 0.991972762066796 -103.847628685261 0.991972762066796 -103.847628685261 0.12137555174351 74.6452272023744 
8.7                            0.12302946036601 -122.529672164189 0.991723206076488 -109.63371339125 0.991723206076488 -109.63371339125 0.123290114676401 83.2576996057225 
8.8                            0.132892088436456 -142.594198836932 0.990431460641873 -115.468695418705 0.990431460641872 -115.468695418705 0.133173009843746 91.6205073377786 
8.9                            0.150584661300316 -160.873457610514 0.987878586617517 -121.344002634468 0.987878586617518 -121.344002634468 0.150867192180834 98.1250607676686 
9                              0.174738721667201 -176.726222125413 0.98387678873487 -127.247996923477 0.983876788734868 -127.247996923477 0.175010979967658 102.156742722836 
9.1                            0.20365642805128 169.676189891804 0.978285021483186 -133.166264324906 0.978285021483186 -133.166264324906 0.203913157784532 103.913076796003 
9.2                            0.235811520331084 157.878147958189 0.971022441745328 -139.082133134679 0.971022441745328 -139.082133134679 0.23605132024913 103.879566905856 
9.3                            0.269956250284802 147.440572659019 0.962077823907388 -144.977394664489 0.962077823907388 -144.977394664489 0.270179430765244 102.529316452505 
9.4                            0.305082847811536 138.025451076768 0.951513391741094 -150.833170567406 0.951513391741093 -150.833170567406 0.305290325455006 100.236751413199 
9.5                            0.340370016811488 129.392416218757 0.939462369263404 -156.630844570166 0.939462369263403 -156.630844570166 0.340562842891596 97.2787800363267 
9.6                            0.375146388932577 121.374794879582 0.926120542836262 -162.352969616618 0.926120542836262 -162.352969616618 0.375325577456167 93.8566315849586 
9.7                            0.408869382668174 113.85698873409  0.91173304881515 -167.984058311006 0.91173304881515 -167.984058311006 0.409035863512098 90.1167231346599 
9.8                            0.441112112119643 106.757559707953 0.896578311516736 -173.511195695005 0.896578311516736 -173.511195695005 0.441266730757282 86.1662586578962 
9.9                            0.471552816478923 100.017525645751 0.880951255188798 -178.924435146286 0.880951255188798 -178.924435146286 0.471696347460332 82.084095543454  
10                             0.499963876766145 93.5925254431017 0.865147712545536 175.78302487125  0.865147712545536 175.78302487125  0.500097038425786 77.9282025724528 
10.1                           0.526199458715634 87.4476554711527 0.849451443694141 170.614862778693 0.849451443694141 170.614862778693 0.5263229249908  73.7408555734289 
10.2                           0.550181994642117 81.5540961877227 0.834124538736273 165.571809857159 0.834124538736274 165.571809857159 0.550296403327701 69.5523567704712 
10.3                           0.571888273465732 75.8869585215416 0.819401348990426 160.65193559381  0.819401348990427 160.65193559381  0.571994231650745 65.3837561485266 
10.4                           0.591335956028221 70.4238989138541 0.805485648025678 155.850990252024 0.805485648025679 155.850990252024 0.591434043434875 61.2489201827063 
10.5                           0.608571198962233 65.1442677925872 0.79255043007382 151.162768193822 0.792550430073821 151.162768193822 0.608661970218736 57.1561094847901 
10.6                           0.623657822269318 60.028568664962  0.780739638999381 146.579454651042 0.780739638999382 146.579454651042 0.623741808653374 53.1092131614801 
10.7                           0.636668165396294 55.0581251624053 0.770171168746733 142.091941015438 0.770171168746732 142.091941015438 0.636745876548857 49.1087125148477 
10.8                           0.647675631911846 50.2148646791732 0.760940528835938 137.690091747789 0.760940528835938 137.690091747789 0.64774755784404 45.1524315228797 
10.9                           0.656748724263873 45.4811684988405 0.75312474282977 133.362961087795 0.75312474282977 133.362961087795 0.65681533781956 41.2361205370881 
11                             0.663946391487016 40.8397530807759 0.74678609418286 129.098956228457 0.746786094182861 129.098956228457 0.664008151413644 37.3539018202438 
11.1                           0.669314324275252 36.2735671610544 0.741975578432299 124.885956168183 0.741975578432299 124.885956168183 0.669371678973583 33.4986107229907 
11.2                           0.672882081580118 31.7656850653305 0.738735791771134 120.711383636504 0.738735791771134 120.711383636504 0.672935473656912 29.66204688498   
11.3                           0.674660660028401 27.2992000472229 0.737103300959239 116.562245749371 0.737103300959239 116.562245749371 0.674710531749246 25.8351630174521 
11.4                           0.674640464875681 22.8571040229555 0.737110294366024 112.425141969487 0.737110294366024 112.425141969487 0.674687264695207 22.0082020718643 
11.5                           0.672789424645559 18.4221612547973 0.738785553880758 108.286252754594 0.738785553880758 108.286252754594 0.672833615048281 18.1708020897719 
11.6                           0.669051224881922 13.976772023513  0.742154612238642 104.1313136802   0.742154612238642 104.1313136802   0.669093291896483 14.3120823506215 
11.7                           0.6633435749351  9.50282704871435 0.747239043716515 99.9455846991757 0.747239043716516 99.9455846991757 0.663384039704621 10.4207295233429 
11.8                           0.655556598739531 4.98155689967004 0.754054704609211 95.7138240761647 0.75405470460921 95.7138240761647 0.655596031961967 6.48509884008882 
11.9                           0.645551405039045 0.39337413510214 0.762608813765745 91.4202802605724 0.762608813765745 91.4202802605724 0.64559044494726 2.49335937392653 
12                             0.633159137633483 -4.28228830681613 0.77289561148484 87.0487166033097 0.772895611484839 87.0487166033097 0.633198513057879 -1.56628987079834 
12.1                           0.618180841916587 -9.06714754536343 0.78489041964507 82.5824886400783 0.78489041964507 82.5824886400783 0.618221402087055 -5.70528786689846 
12.2                           0.600388777683615 -13.9842584814875 0.79854185793627 78.0046991166032 0.798541857936269 78.0046991166032 0.600431531577029 -9.93420362439089 
12.3                           0.579529970501905 -19.058245754459 0.813762123834576 73.298460272358  0.813762123834576 73.298460272358  0.579576139948185 -14.2619647286657 
12.4                           0.555333085115794 -24.3156389432448 0.830415419537878 68.4472981708968 0.830415419537878 68.4472981708968 0.555384178149195 -18.6946909343972 
12.5                           0.527520041724398 -29.7854376733155 0.848304920624004 63.4357359291175 0.848304920624004 63.4357359291175 0.527577957049494 -23.2339275290638 
12.6                           0.495823771299968 -35.5001791458179 0.867159401219421 58.2500860006554 0.867159401219421 58.2500860006554 0.495890952514816 -27.8739367290269 
12.7                           0.460013708612927 -41.4980646224679 0.886621276908441 52.8794699015835 0.886621276908442 52.8794699015835 0.460093381877226 -32.5974369408988 
12.8                           0.419930023687037 -47.8273508675659 0.906238969767463 47.3170497121892 0.906238969767462 47.3170497121892 0.420026583856074 -37.3685815054071 
12.9                           0.375526922191745 -54.5556736856419 0.925467391111287 41.5614050096026 0.925467391111286 41.5614050096026 0.375646600658522 -42.1205707381576 
13                             0.326924766267343 -61.7907255859111 0.943680816283638 35.6179204755833 0.943680816283639 35.6179204755833 0.327076877589007 -46.7315806393835 
13.1                           0.274472454315976 -69.7294341844393 0.960201880217683 29.4999672840284 0.960201880217684 29.4999672840284 0.274671952637005 -50.9718883927258 
13.2                           0.218834740844772 -78.788891829884 0.97434807541603 23.2295996650904 0.97434807541603 23.2295996650904 0.219108134473807 -54.368412723686 
13.3                           0.161185794814528 -90.0217247709063 0.985492966605515 16.8374777915141 0.985492966605515 16.8374777915141 0.161587198611596 -55.7817228408224 
13.4                           0.103990582316988 -106.833863423212 0.993134074599791 10.3617988860199 0.993134074599792 10.3617988860199 0.104654725787016 -51.6792990482086 
13.5                           0.0564118187355314 -144.241611701696 0.996954852234848 3.84619652993325 0.996954852234847 3.84619652993325 0.0576939806274118 -27.2067932734818 
13.6                           0.0578816468137756 143.044257535767 0.996866889582282 -2.66319721830467 0.996866889582282 -2.66319721830467 0.0591833343819904 30.8495913332265 
13.7                           0.104947414491444 107.694908955549 0.993021905898424 -9.12110624988478 0.993021905898425 -9.12110624988477 0.105690658324055 53.3574748806959 
13.8                           0.159229039179835 91.4893316377644 0.985790574500165 -15.4863398146963 0.985790574500165 -15.4863398146963 0.159726635264898 57.0495519164217 
13.9                           0.212519495339053 80.5822805216156 0.975713914183819 -21.7243925070501 0.97571391418382 -21.7243925070501 0.212892968056657 55.6091324965798 
14                             0.262722699799322 71.791915124407  0.963439256258228 -27.8090908134287 0.963439256258229 -27.8090908134287 0.263021729120505 52.3110184998253 
14.1                           0.308962844079853 64.1094851666983 0.949654516941202 -33.7232010191008 0.949654516941203 -33.7232010191007 0.309211878028647 48.2207040196122 
14.2                           0.350832984648503 57.1231389349775 0.935031891785609 -39.4581339460369 0.935031891785609 -39.4581339460369 0.351045790310123 43.7779467255605 
14.3                           0.38818904601518 50.6309402964746 0.920187175256045 -45.0130065873474 0.920187175256045 -45.0130065873474 0.38837417140937 39.1920269009394 
14.4                           0.421054136681824 44.5177191925238 0.905655936726634 -50.3933561640039 0.905655936726635 -50.3933561640039 0.421217296433833 34.5701874824452 
14.5                           0.449556297338935 38.7084311823072 0.891884333958806 -55.609759874125 0.891884333958805 -55.609759874125 0.449701540268589 29.968222671593  
14.6                           0.473882695031507 33.1482800343839 0.879230649166973 -60.6765405616482 0.879230649166974 -60.6765405616482 0.47401302823137 25.4135050714525 
14.7                           0.494245410001221 27.7934990176779 0.867973492614203 -65.6106590792726 0.867973492614203 -65.6106590792726 0.494363157124071 20.9167055147619 
14.8                           0.510856569565471 22.6067797971461 0.858323217215545 -70.4308342875445 0.858323217215545 -70.4308342875445 0.510963589589848 16.4782798091642 
14.9                           0.523910912838874 17.554855628734  0.850434074688555 -75.1568873898364 0.850434074688555 -75.1568873898364 0.524008741440739 12.0922867803706 
15                             0.533574080042644 12.6071282218046 0.84441549527817 -79.8092846106798 0.84441549527817 -79.8092846106798 0.533664026309953 7.74873096698875 
15.1                           0.539975065816387 7.73481086112244 0.840341596274362 -84.4088411188678 0.840341596274362 -84.4088411188678 0.54005828246389 3.43504719657375 
15.2                           0.543201564933858 2.91033593078493 0.838258490732809 -88.9765473010215 0.838258490732809 -88.9765473010215 0.543279102957233 -0.862934838554151 
15.3                           0.543297325774754 -1.89310274698493 0.838189194752964 -93.5334797848967 0.838189194752964 -93.5334797848967 0.543370180447072 -5.16033629356812 
15.4                           0.540260840515259 -6.7019371140834 0.84013612580268 -98.1007626743424 0.840136125802681 -98.1007626743424 0.540329993798051 -9.4727485483526 
15.5                           0.53404508797851 -11.5425775893442 0.844081168922205 -102.699546669664 0.844081168922206 -102.699546669664 0.534111551406341 -13.8158232207368 
15.6                           0.524558316751133 -16.4417572798503 0.849983292451702 -107.350974100546 0.849983292451701 -107.350974100546 0.524623179030808 -18.2048405862334 
15.7                           0.511666137881645 -21.4268912473561 0.857773692884701 -112.076097722026 0.857773692884701 -112.076097722026 0.511730622050984 -22.6541657913252 
15.8                           0.49519549749463 -26.5264966367884 0.867348480200409 -116.895717499718 0.86734848020041 -116.895717499718 0.495261034550608 -27.1764714972397 
15.9                           0.474941451973506 -31.7707541481672 0.878559012426747 -121.830097033553 0.878559012426747 -121.830097033553 0.475009781358972 -31.7815632060922 
16                             0.450677974942356 -37.192383796609 0.891200258143215 -126.898517156781 0.891200258143214 -126.898517156781 0.450751289227063 -36.4745377287918 
16.1                           0.422174262484874 -42.8282033414435 0.904998044221515 -132.118627892302 0.904998044221515 -132.118627892302 0.422255427186519 -41.2528066352084 
16.2                           0.389218226294327 -48.7221613897646 0.919596705562622 -137.505565164828 0.919596705562622 -137.505565164828 0.389311133555511 -46.1010806508477 
16.3                           0.351648655247707 -54.9316694681395 0.934549655105219 -143.070824617399 0.934549655105219 -143.070824617399 0.35175883218988 -50.982377875252 
16.4                           0.30939739869121 -61.5416987969743 0.949316364383907 -148.820923571298 0.949316364383908 -148.820923571298 0.309533141372298 -55.8204208634455 
16.5                           0.262543263244182 -68.6988545632597 0.963270086114415 -154.755946829006 0.963270086114416 -154.755946829006 0.262717975039972 -60.4607916791246 